                               Psi4 1.4a2.dev629

  ==> Input File <==

--------------------------------------------------------------------------
import psi4
import time

# Basic options trying to be uniform

psi4.set_num_threads(12)
psi4.set_memory('700 GB')
psi4.set_options({"basis" : "cc-pvdz",
                  "scf_type" : "pk",
                  "mp2_type" : "conv",
                  "cc_type" : "conv",
                  "puream" : True,
                  "freeze_core" : True,
                  "e_convergence" : 1e-8,
                  "cc_num_threads" : 12,
                  "d_convergence" : 1e-8})

times = []
for i in range(1,23):

    # Read in xyz file
    molstring = open("../../xyz/S22-{}-dimer.xyz".format(i), "r").read()

    # Remove first two lines from xyz and add symmetry
    molstring = str(molstring.split("\n",2)[2]) + "\nsymmetry c1"
    mol = psi4.geometry(molstring)

    # Run energy compt
    t = time.time()
    psi4.energy("ccsd", molecule=mol)
    psi4.core.clean()

    # Print out time
    psi4.core.print_out("@@@ Total Run Time: {}".format(time.time() - t))

--------------------------------------------------------------------------

    Molecular point group: c1
  Charge       = 0
  Multiplicity = 1
  Basis Set: CC-PVDZ
    Blend: CC-PVDZ
  @RHF Final Energy:  -112.39624279887043
    Total Energy =                       -112.3962427988704320
      * MP2 total energy                      = -112.771819283305405
      * CCSD total energy                     = -112.803575828360565
    Molecular point group: c1
  Basis Set: CC-PVDZ
    Blend: CC-PVDZ
  @RHF Final Energy:  -152.06253624958117
    Total Energy =                       -152.0625362495811430
      * MP2 total energy                      = -152.468711864619792
      * CCSD total energy                     = -152.487013421803653
  Basis Set: CC-PVDZ
    Blend: CC-PVDZ
  @RHF Final Energy:  -377.58625576814762
    Total Energy =                       -377.5862557681476233
      * MP2 total energy                      = -378.591963480270920
      * CCSD total energy                     = -378.614681597550941
  Basis Set: CC-PVDZ
    Blend: CC-PVDZ
  @RHF Final Energy:  -337.91625872128355
    Total Energy =                       -337.9162587212835547
      * MP2 total energy                      = -338.888571547717163
      * CCSD total energy                     = -338.923848768484106
  @RHF Final Energy:  -825.03603829845883
    Total Energy =                       -825.0360382984588341
      * MP2 total energy                      = -827.416459483198537
      * CCSD total energy                     = -827.472494900596416
  @RHF Final Energy:  -623.37334101298541
    Total Energy =                       -623.3733410129852928
      * MP2 total energy                      = -625.347827652826368
      * CCSD total energy                     = -625.416509575040209
  @RHF Final Energy:  -916.12471884677302
    Total Energy =                       -916.1247188467730211
      * MP2 total energy                      = -918.910941968562838
      * CCSD total energy                     = -918.976393221547937
  @RHF Final Energy:   -80.39690629334325
    Total Energy =                        -80.3969062933432497
      * MP2 total energy                      =  -80.720250585065145
      * CCSD total energy                     =  -80.767119239334704
  @RHF Final Energy:  -156.07931108124214
    Total Energy =                       -156.0793110812421389
      * MP2 total energy                      = -156.631875117635389
      * CCSD total energy                     = -156.691508274805102
  @RHF Final Energy:  -270.91964004037925
    Total Energy =                       -270.9196400403792495
      * MP2 total energy                      = -271.867205905453886
      * CCSD total energy                     = -271.929129044325293
  @RHF Final Energy:  -825.01276376899682
    Total Energy =                       -825.0127637689968196
      * MP2 total energy                      = -827.402041413429629
      * CCSD total energy                     = -827.455565275685331
  @RHF Final Energy:  -592.21153444024731
    Total Energy =                       -592.2115344402473056
      * MP2 total energy                      = -594.219424490508914
      * CCSD total energy                     = -594.292063677750434
  @RHF Final Energy:  -916.10613569860732
    Total Energy =                       -916.1061356986074316
      * MP2 total energy                      = -918.907485759527503
      * CCSD total energy                     = -918.967420054553259
  @RHF Final Energy:  -154.86673513752825
    Total Energy =                       -154.8667351375282522
      * MP2 total energy                      = -155.399275326966091
      * CCSD total energy                     = -155.445783376284936
  @RHF Final Energy:  -306.75167904014160
    Total Energy =                       -306.7516790401415960
      * MP2 total energy                      = -307.739400171119769
      * CCSD total energy                     = -307.787429221113200
  @RHF Final Energy:  -286.91848133862135
    Total Energy =                       -286.9184813386213477
      * MP2 total energy                      = -287.891063564422097
      * CCSD total energy                     = -287.945773618651629
  Basis Set: CC-PVDZ
    Blend: CC-PVDZ
  @RHF Final Energy:  -323.60742982413990
    Total Energy =                       -323.6074298241398992
      * MP2 total energy                      = -324.681452256756188
      * CCSD total energy                     = -324.727609023206014
  Basis Set: CC-PVDZ
    Blend: CC-PVDZ
  @RHF Final Energy:  -461.44319679125397
    Total Energy =                       -461.4431967912539676
      * MP2 total energy                      = -463.015658644153064
      * CCSD total energy                     = -463.092388739272280
  Multiplicity = 1
  Basis Set: CC-PVDZ
    Blend: CC-PVDZ
  @RHF Final Energy:  -592.22136034655807
    Total Energy =                       -592.2213603465581855
      * MP2 total energy                      = -594.219329956513093
      * CCSD total energy                     = -594.295828979448515
    Molecular point group: c1

    Geometry (in Angstrom), charge = 0, multiplicity = 1:

       Center              X                  Y                   Z               Mass
    ------------   -----------------  -----------------  -----------------  -----------------
         C           -2.007108548828     0.763648846485    -0.108356814444    12.000000000000
         O           -1.388507348828     1.929655246485    -0.443126514444    15.994914619570
         H           -0.523815048828     1.964454846485    -0.006466814444     1.007825032230
         C           -1.463083648828    -0.152109053515     0.794987085556    12.000000000000
         C           -2.147581848828    -1.329706453515     1.088361785556    12.000000000000
         C           -3.374323748828    -1.603339753515     0.489580485556    12.000000000000
         C           -3.914375648828    -0.684051553515    -0.409108714444    12.000000000000
         C           -3.237052548828     0.492763846485    -0.709618514444    12.000000000000
         H           -0.510653948828     0.056459846485     1.264250385556     1.007825032230
         H           -1.715116448828    -2.032342253515     1.787835785556     1.007825032230
         H           -3.902469348828    -2.517583553515     0.719788785556     1.007825032230
         H           -4.867075948828    -0.882490953515    -0.881137814444     1.007825032230
         H           -3.643169148828     1.213237446485    -1.405764914444     1.007825032230
         O            1.353113851172     1.938075346485     0.472307385556    15.994914619570
         C            2.036971751172     0.786307246485     0.149543185556    12.000000000000
         H            1.784281651172     2.348552446485     1.229705085556     1.007825032230
         C            1.590399651172     0.069488946485    -0.957421214444    12.000000000000
         C            2.241733751172    -1.107173553515    -1.312816914444    12.000000000000
         C            3.331564451172    -1.566757353515    -0.574869514444    12.000000000000
         C            3.769680851172    -0.839887153515     0.528637985556    12.000000000000
         C            3.122480651172     0.338152746485     0.896043185556    12.000000000000
         H            0.744548251172     0.436601246485    -1.521864214444     1.007825032230
         H            1.892143351172    -1.665169653515    -2.170190214444     1.007825032230
         H            3.833019751172    -2.481350753515    -0.856672514444     1.007825032230
         H            4.613760251172    -1.185207153515     1.109257585556     1.007825032230
         H            3.459882451172     0.902840546485     1.756942985556     1.007825032230

  Charge       = 0
  Multiplicity = 1
  Basis Set: CC-PVDZ
    Blend: CC-PVDZ

    Orbital Energies [Eh]
    ---------------------

    Doubly Occupied:

       1A    -20.616566     2A    -20.567243     3A    -11.317061
       4A    -11.291108     5A    -11.255156     6A    -11.251720
       7A    -11.249719     8A    -11.241424     9A    -11.240578
      10A    -11.234804    11A    -11.233549    12A    -11.222887
      13A    -11.220005    14A    -11.219039    15A     -1.427479
      16A     -1.385065    17A     -1.159139    18A     -1.135529
      19A     -1.031160    20A     -1.017597    21A     -1.008544
      22A     -0.992613    23A     -0.859562    24A     -0.836467
      25A     -0.831676    26A     -0.809486    27A     -0.746417
      28A     -0.720754    29A     -0.696539    30A     -0.677046
      31A     -0.660026    32A     -0.637818    33A     -0.619154
      34A     -0.610817    35A     -0.602470    36A     -0.597568
      37A     -0.585318    38A     -0.576400    39A     -0.569119
      40A     -0.547485    41A     -0.523869    42A     -0.504363
      43A     -0.502165    44A     -0.494517    45A     -0.477244
      46A     -0.468184    47A     -0.350726    48A     -0.331715
      49A     -0.325172    50A     -0.299475

  @RHF Final Energy:  -611.18110046825609

   => Energetics <=

    Nuclear Repulsion Energy =            805.1177369106879951
    One-Electron Energy =               -2429.0385952782967252
    Two-Electron Energy =                1012.7397578993525258
    Total Energy =                       -611.1811004682560906

  Dipole Moment: [D]
     X:     3.0010      Y:    -0.7430      Z:     1.6753     Total:     3.5163

      * MP2 total energy                      = -613.121236854660424
      * CCSD total energy                     = -613.196129840163962
*** Psi4 exiting successfully. Buy a developer a beer!
